<?xml version="1.0" encoding="UTF-8"?>
<VTKFile type="UnstructuredGrid" version="0.1" byte_order="LittleEndian">
<UnstructuredGrid>
<Piece NumberOfPoints="54" NumberOfCells="53">
<PointData>
<DataArray type="Float64" Name="Height" Format="ascii">
6.596025559353463
7.41593389388493
8.599719667745603
10.262075298061179
12.403000784831645
15.099102723540902
18.949284212463063
23.953545251598094
30.349620547139722
39.35860436510243
50.98049670548616
65.45760570892122
84.01483883585662
106.65219608629226
133.41852590835947
162.18373174111653
192.94781358456348
222.14972235152834
245.2493769093946
262.246777258162
269.9744935569969
269.2158526175907
259.97085443994376
245.50335350633588
231.60613194176517
218.27918974623168
210.75562944541994
210.3765640821322
217.1419936563686
229.9749873684896
243.74269603734797
258.4451196629438
268.4105267975513
270.13335919926493
263.6136168680849
247.6624554137772
225.3202224277388
196.5869179099697
165.7838207956541
136.7832102599634
109.58508630289668
86.43594679855093
67.3956236325599
52.4641168049233
40.51992112025961
31.242027747426143
24.630436686422424
19.427028538534667
15.435126325766143
12.654730048116894
10.440868539730612
8.72698750952543
7.5130869575013195
6.601241048289592
</DataArray>
</PointData>
<CellData/>
<Points>
<DataArray type="Float64" NumberOfComponents="3" Format="ascii">
0 0 0
1.381493272937938E-4 0 0
2.895587358180906E-4 0 0
4.409681443423878E-4 0 0
5.92377552866685E-4 0 0
7.329354540603636E-4 0 0
8.73493355254044E-4 0 0
0.001014051256447723 0 0
0.0011461587448319131 0 0
0.0012782662332161032 0 0
0.0014103737216002933 0 0
0.0015367627255116817 0 0
0.00166315172942307 0 0
0.0017895407333344585 0 0
0.001915703393673256 0 0
0.0020418660540120538 0 0
0.0021680287143508517 0 0
0.0022941913746896475 0 0
0.0024203540350284432 0 0
0.0025465166953672386 0 0
0.002672679355706034 0 0
0.0027988420160448297 0 0
0.0029250046763836246 0 0
0.0030511673367224225 0 0
0.0031773299970612205 0 0
0.0033034926574000184 0 0
0.003429655317738817 0 0
0.003555817978077616 0 0
0.003681980638416415 0 0
0.0038081432987552115 0 0
0.003934305959094008 0 0
0.004060468619432805 0 0
0.004186631279771604 0 0
0.004312793940110403 0 0
0.004438956600449202 0 0
0.004565119260788001 0 0
0.004691281921126799 0 0
0.004817444581465598 0 0
0.004943607241804398 0 0
0.005069769902143196 0 0
0.005195932562481995 0 0
0.005322261204645265 0 0
0.005448589846808533 0 0
0.005574918488971802 0 0
0.005706943150247945 0 0
0.005838967811524085 0 0
0.005970992472800227 0 0
0.006111811066487159 0 0
0.006252629660174091 0 0
0.006393448253861021 0 0
0.006545264770414128 0 0
0.006697081286967232 0 0
0.006848897803520337 0 0
0.007 0 0
</DataArray>
</Points>
<Cells>
<DataArray type="Int32" Name="connectivity" Format="ascii">
0 1
1 2
2 3
3 4
6 7
5 6
4 5
9 10
8 9
7 8
12 13
11 12
10 11
15 16
14 15
13 14
18 19
17 18
16 17
19 20
20 21
21 22
24 25
23 24
22 23
27 28
26 27
25 26
30 31
29 30
28 29
33 34
32 33
31 32
36 37
35 36
34 35
39 40
38 39
37 38
42 43
41 42
40 41
45 46
44 45
43 44
48 49
47 48
46 47
51 52
50 51
49 50
52 53
</DataArray>
<DataArray type="Int32" Name="offsets" Format="ascii">
2 4 6 8
10 12 14 16
18 20 22 24
26 28 30 32
34 36 38 40
42 44 46 48
50 52 54 56
58 60 62 64
66 68 70 72
74 76 78 80
82 84 86 88
90 92 94 96
98 100 102 104
106
</DataArray>
<DataArray type="UInt8" Name="types" Format="ascii">
3 3 3 3 3 3 3 3 3 3 3 3 3 3 3 3
3 3 3 3 3 3 3 3 3 3 3 3 3 3 3 3
3 3 3 3 3 3 3 3 3 3 3 3 3 3 3 3
3 3 3 3 3
</DataArray>
</Cells>
</Piece>
</UnstructuredGrid>
</VTKFile>
